# vtk DataFile Version 2.0
opensees model
ASCII
DATASET UNSTRUCTURED_GRID
POINTS 121 float
0.00000000000000000000 0.00000000000000000000 0.0
0.00000000000000000000 1.00000000000000000000 0.0
0.00000000000000000000 2.00000000000000000000 0.0
0.00000000000000000000 3.00000000000000000000 0.0
0.00000000000000000000 4.00000000000000000000 0.0
0.00000000000000000000 5.00000000000000000000 0.0
0.00000000000000000000 6.00000000000000000000 0.0
0.00000000000000000000 7.00000000000000000000 0.0
0.00000000000000000000 8.00000000000000000000 0.0
0.00000000000000000000 9.00000000000000000000 0.0
0.00000000000000000000 10.00000000000000000000 0.0
10.00000000000000000000 0.00000000000000000000 0.0
10.00000000000000000000 1.00000000000000000000 0.0
10.00000000000000000000 2.00000000000000000000 0.0
10.00000000000000000000 3.00000000000000000000 0.0
10.00000000000000000000 4.00000000000000000000 0.0
10.00000000000000000000 5.00000000000000000000 0.0
10.00000000000000000000 6.00000000000000000000 0.0
10.00000000000000000000 7.00000000000000000000 0.0
10.00000000000000000000 8.00000000000000000000 0.0
10.00000000000000000000 9.00000000000000000000 0.0
10.00000000000000000000 10.00000000000000000000 0.0
20.00000000000000000000 0.00000000000000000000 0.0
20.00000000000000000000 1.00000000000000000000 0.0
20.00000000000000000000 2.00000000000000000000 0.0
20.00000000000000000000 3.00000000000000000000 0.0
20.00000000000000000000 4.00000000000000000000 0.0
20.00000000000000000000 5.00000000000000000000 0.0
20.00000000000000000000 6.00000000000000000000 0.0
20.00000000000000000000 7.00000000000000000000 0.0
20.00000000000000000000 8.00000000000000000000 0.0
20.00000000000000000000 9.00000000000000000000 0.0
20.00000000000000000000 10.00000000000000000000 0.0
30.00000000000000000000 0.00000000000000000000 0.0
30.00000000000000000000 1.00000000000000000000 0.0
30.00000000000000000000 2.00000000000000000000 0.0
30.00000000000000000000 3.00000000000000000000 0.0
30.00000000000000000000 4.00000000000000000000 0.0
30.00000000000000000000 5.00000000000000000000 0.0
30.00000000000000000000 6.00000000000000000000 0.0
30.00000000000000000000 7.00000000000000000000 0.0
30.00000000000000000000 8.00000000000000000000 0.0
30.00000000000000000000 9.00000000000000000000 0.0
30.00000000000000000000 10.00000000000000000000 0.0
40.00000000000000000000 0.00000000000000000000 0.0
40.00000000000000000000 1.00000000000000000000 0.0
40.00000000000000000000 2.00000000000000000000 0.0
40.00000000000000000000 3.00000000000000000000 0.0
40.00000000000000000000 4.00000000000000000000 0.0
40.00000000000000000000 5.00000000000000000000 0.0
40.00000000000000000000 6.00000000000000000000 0.0
40.00000000000000000000 7.00000000000000000000 0.0
40.00000000000000000000 8.00000000000000000000 0.0
40.00000000000000000000 9.00000000000000000000 0.0
40.00000000000000000000 10.00000000000000000000 0.0
50.00000000000000000000 0.00000000000000000000 0.0
50.00000000000000000000 1.00000000000000000000 0.0
50.00000000000000000000 2.00000000000000000000 0.0
50.00000000000000000000 3.00000000000000000000 0.0
50.00000000000000000000 4.00000000000000000000 0.0
50.00000000000000000000 5.00000000000000000000 0.0
50.00000000000000000000 6.00000000000000000000 0.0
50.00000000000000000000 7.00000000000000000000 0.0
50.00000000000000000000 8.00000000000000000000 0.0
50.00000000000000000000 9.00000000000000000000 0.0
50.00000000000000000000 10.00000000000000000000 0.0
60.00000000000000000000 0.00000000000000000000 0.0
60.00000000000000000000 1.00000000000000000000 0.0
60.00000000000000000000 2.00000000000000000000 0.0
60.00000000000000000000 3.00000000000000000000 0.0
60.00000000000000000000 4.00000000000000000000 0.0
60.00000000000000000000 5.00000000000000000000 0.0
60.00000000000000000000 6.00000000000000000000 0.0
60.00000000000000000000 7.00000000000000000000 0.0
60.00000000000000000000 8.00000000000000000000 0.0
60.00000000000000000000 9.00000000000000000000 0.0
60.00000000000000000000 10.00000000000000000000 0.0
70.00000000000000000000 0.00000000000000000000 0.0
70.00000000000000000000 1.00000000000000000000 0.0
70.00000000000000000000 2.00000000000000000000 0.0
70.00000000000000000000 3.00000000000000000000 0.0
70.00000000000000000000 4.00000000000000000000 0.0
70.00000000000000000000 5.00000000000000000000 0.0
70.00000000000000000000 6.00000000000000000000 0.0
70.00000000000000000000 7.00000000000000000000 0.0
70.00000000000000000000 8.00000000000000000000 0.0
70.00000000000000000000 9.00000000000000000000 0.0
70.00000000000000000000 10.00000000000000000000 0.0
80.00000000000000000000 0.00000000000000000000 0.0
80.00000000000000000000 1.00000000000000000000 0.0
80.00000000000000000000 2.00000000000000000000 0.0
80.00000000000000000000 3.00000000000000000000 0.0
80.00000000000000000000 4.00000000000000000000 0.0
80.00000000000000000000 5.00000000000000000000 0.0
80.00000000000000000000 6.00000000000000000000 0.0
80.00000000000000000000 7.00000000000000000000 0.0
80.00000000000000000000 8.00000000000000000000 0.0
80.00000000000000000000 9.00000000000000000000 0.0
80.00000000000000000000 10.00000000000000000000 0.0
90.00000000000000000000 0.00000000000000000000 0.0
90.00000000000000000000 1.00000000000000000000 0.0
90.00000000000000000000 2.00000000000000000000 0.0
90.00000000000000000000 3.00000000000000000000 0.0
90.00000000000000000000 4.00000000000000000000 0.0
90.00000000000000000000 5.00000000000000000000 0.0
90.00000000000000000000 6.00000000000000000000 0.0
90.00000000000000000000 7.00000000000000000000 0.0
90.00000000000000000000 8.00000000000000000000 0.0
90.00000000000000000000 9.00000000000000000000 0.0
90.00000000000000000000 10.00000000000000000000 0.0
100.00000000000000000000 0.00000000000000000000 0.0
100.00000000000000000000 1.00000000000000000000 0.0
100.00000000000000000000 2.00000000000000000000 0.0
100.00000000000000000000 3.00000000000000000000 0.0
100.00000000000000000000 4.00000000000000000000 0.0
100.00000000000000000000 5.00000000000000000000 0.0
100.00000000000000000000 6.00000000000000000000 0.0
100.00000000000000000000 7.00000000000000000000 0.0
100.00000000000000000000 8.00000000000000000000 0.0
100.00000000000000000000 9.00000000000000000000 0.0
100.00000000000000000000 10.00000000000000000000 0.0

CELLS 100 500
4 0 11 12 1
4 1 12 13 2
4 2 13 14 3
4 3 14 15 4
4 4 15 16 5
4 5 16 17 6
4 6 17 18 7
4 7 18 19 8
4 8 19 20 9
4 9 20 21 10
4 11 22 23 12
4 12 23 24 13
4 13 24 25 14
4 14 25 26 15
4 15 26 27 16
4 16 27 28 17
4 17 28 29 18
4 18 29 30 19
4 19 30 31 20
4 20 31 32 21
4 22 33 34 23
4 23 34 35 24
4 24 35 36 25
4 25 36 37 26
4 26 37 38 27
4 27 38 39 28
4 28 39 40 29
4 29 40 41 30
4 30 41 42 31
4 31 42 43 32
4 33 44 45 34
4 34 45 46 35
4 35 46 47 36
4 36 47 48 37
4 37 48 49 38
4 38 49 50 39
4 39 50 51 40
4 40 51 52 41
4 41 52 53 42
4 42 53 54 43
4 44 55 56 45
4 45 56 57 46
4 46 57 58 47
4 47 58 59 48
4 48 59 60 49
4 49 60 61 50
4 50 61 62 51
4 51 62 63 52
4 52 63 64 53
4 53 64 65 54
4 55 66 67 56
4 56 67 68 57
4 57 68 69 58
4 58 69 70 59
4 59 70 71 60
4 60 71 72 61
4 61 72 73 62
4 62 73 74 63
4 63 74 75 64
4 64 75 76 65
4 66 77 78 67
4 67 78 79 68
4 68 79 80 69
4 69 80 81 70
4 70 81 82 71
4 71 82 83 72
4 72 83 84 73
4 73 84 85 74
4 74 85 86 75
4 75 86 87 76
4 77 88 89 78
4 78 89 90 79
4 79 90 91 80
4 80 91 92 81
4 81 92 93 82
4 82 93 94 83
4 83 94 95 84
4 84 95 96 85
4 85 96 97 86
4 86 97 98 87
4 88 99 100 89
4 89 100 101 90
4 90 101 102 91
4 91 102 103 92
4 92 103 104 93
4 93 104 105 94
4 94 105 106 95
4 95 106 107 96
4 96 107 108 97
4 97 108 109 98
4 99 110 111 100
4 100 111 112 101
4 101 112 113 102
4 102 113 114 103
4 103 114 115 104
4 104 115 116 105
4 105 116 117 106
4 106 117 118 107
4 107 118 119 108
4 108 119 120 109

CELL_TYPES 100
9
9
9
9
9
9
9
9
9
9
9
9
9
9
9
9
9
9
9
9
9
9
9
9
9
9
9
9
9
9
9
9
9
9
9
9
9
9
9
9
9
9
9
9
9
9
9
9
9
9
9
9
9
9
9
9
9
9
9
9
9
9
9
9
9
9
9
9
9
9
9
9
9
9
9
9
9
9
9
9
9
9
9
9
9
9
9
9
9
9
9
9
9
9
9
9
9
9
9
9

POINT_DATA 121
VECTORS node_disp_0.100000 float
0.00000000000000000000 0.00000000000000000000 0.0
0.00000000000000000000 0.00000000000000000000 0.0
0.00000000000000000000 0.00000000000000000000 0.0
0.00000000000000000000 0.00000000000000000000 0.0
0.00000000000000000000 0.00000000000000000000 0.0
0.00000000000000000000 0.00000000000000000000 0.0
0.00000000000000000000 0.00000000000000000000 0.0
0.00000000000000000000 0.00000000000000000000 0.0
0.00000000000000000000 0.00000000000000000000 0.0
0.00000000000000000000 0.00000000000000000000 0.0
0.00000000000000000000 0.00000000000000000000 0.0
0.14458681123624306242 0.16762733120885700555 0.0
0.11429508651256779783 0.16067582944307803872 0.0
0.08498500609751503954 0.15533137242376379716 0.0
0.05632712379066926595 0.15154851493047694078 0.0
0.02806861387949756426 0.14929294008675195182 0.0
-0.00000000033171502056 0.14854346418321776047 0.0
-0.02806861430098302190 0.14929294054109729095 0.0
-0.05632712372263823375 0.15154851564129692698 0.0
-0.08498500591437262164 0.15533137298853663677 0.0
-0.11429508700190295356 0.16067582949221229094 0.0
-0.14458681099863227026 0.16762733161600662513 0.0
0.28128884942742726771 0.59982599785436929718 0.0
0.22491876118235243354 0.59521165468401349141 0.0
0.16856157435362709163 0.59155874822283938119 0.0
0.11229436060036596112 0.58891701801290874396 0.0
0.05611967810992792710 0.58731947594012789970 0.0
-0.00000000012183811085 0.58678492712688035127 0.0
-0.05611967872182257316 0.58731947411754081845 0.0
-0.11229436157755785797 0.58891701528089035467 0.0
-0.16856157395714030378 0.59155874614786552179 0.0
-0.22491875726771737298 0.59521165427027900030 0.0
-0.28128884821590616205 0.59982599554386861751 0.0
0.40109350583497394016 1.29202691185878792979 0.0
0.32029852652808732394 1.28764484040521742791 0.0
0.23992150754823260428 1.28426942665741350424 0.0
0.15981351663149009901 1.28187333946335391133 0.0
0.07986819923388409348 1.28044094519713747005 0.0
0.00000000709334615669 1.27996429038344161633 0.0
-0.07986818632766290449 1.28044094845377420810 0.0
-0.15981350914419853448 1.28187334320563128820 0.0
-0.23992151248802195962 1.28426942685042799752 0.0
-0.32029854752743824875 1.28764483631894832705 0.0
-0.40109351674936655208 1.29202691748978115704 0.0
0.50469318462184531437 2.20697653628456080810 0.0
0.40331061788965277826 2.20330786697726876966 0.0
0.30220978264441605843 2.20044177304375132564 0.0
0.20133935855382736890 2.19838968426475611651 0.0
0.10062893048122999173 2.19715696288636141986 0.0
-0.00000004349209996403 2.19674585794764354318 0.0
-0.10062900505909173898 2.19715697362625528299 0.0
-0.20133939496012154269 2.19838971034491681422 0.0
-0.30220975794460835928 2.20044181819831363711 0.0
-0.40331053657149157354 2.20330792032507094547 0.0
-0.50469315201291831130 2.20697654383422081636 0.0
0.59218787308050102602 3.31312941648387848659 0.0
0.47327323865239423473 3.31006257188409236392 0.0
0.35468186980922700169 3.30768130531750648160 0.0
0.23632577027641807343 3.30598156653231045610 0.0
0.11812446419483654814 3.30496193766233226086 0.0
0.00000014418844179896 3.30462204183394803181 0.0
-0.11812422716089006347 3.30496182271220106941 0.0
-0.23632567708942664453 3.30598134349452132952 0.0
-0.35468196859468403837 3.30768100196604297736 0.0
-0.47327345145236060509 3.31006226866102393203 0.0
-0.59218781280500343289 3.31312930388026805062 0.0
0.66351771047253282898 4.57809186750176078107 0.0
0.53034598654966946807 4.57565230253387777992 0.0
0.39748443424072221752 4.57375395717703803200 0.0
0.26485820536559578908 4.57239800271529350795 0.0
0.13238956587492450856 4.57158460285474177454 0.0
-0.00000010953037279319 4.57131365007938406109 0.0
-0.13238967414948346613 4.57158505884088750548 0.0
-0.26485803610087221838 4.57239883476235586812 0.0
-0.39748401055499987811 4.57375498240888056500 0.0
-0.53034574018592484101 4.57565318711057589240 0.0
-0.66351886704342011303 4.57809204998301044753 0.0
0.71870486687536816461 5.96956630436765411929 0.0
0.57448837692564258539 5.96775147013224938064 0.0
0.43058946611155202167 5.96633986347059686040 0.0
0.28692763190167269727 5.96533121870378479912 0.0
0.14342350678927745511 5.96472573682162732212 0.0
-0.00000184014783066671 5.96452369108820779076 0.0
-0.14342713154140585008 5.96472527630185744840 0.0
-0.28693094578537620132 5.96533057456261506246 0.0
-0.43059175091108381483 5.96633960054665735129 0.0
-0.57448803648635105024 5.96775245925705188910 0.0
-0.71869883055339278677 5.96956973771618226721 0.0
0.75772644203932637552 7.45529211077637210536 0.0
0.60572400667016823572 7.45408820825478546368 0.0
0.45402864604391607317 7.45315015711897110862 0.0
0.30256289373968148215 7.45247901106349175393 0.0
0.15124970516713528990 7.45207512108540726103 0.0
0.00001222638894106271 7.45193849906297067776 0.0
-0.15122639477802085617 7.45206899579208137396 0.0
-0.30254315685180449558 7.45246636403102957757 0.0
-0.45401536332847314270 7.45313022963407689758 0.0
-0.60572084321604913182 7.45405995874703197757 0.0
-0.75773823459695921478 7.45525436410934361220 0.0
0.78055504523548713269 9.00267150125110404701 0.0
0.62395415939656129201 9.00214802150537529712 0.0
0.46767211575291611769 9.00175346130522058274 0.0
0.31163312293814948717 9.00148192087192100530 0.0
0.15575795626417551776 9.00132944776866317227 0.0
-0.00003468825749876055 9.00129381618465806980 0.0
-0.15582713222612071258 9.00137440211920214495 0.0
-0.31170180882685716295 9.00157212705270914910 0.0
-0.46774038915606241940 9.00188945973923715371 0.0
-0.62402282525585262007 9.00233047657076923542 0.0
-0.78062619806105859599 9.00290099627681428274 0.0
0.78836424163372875729 10.58085238187889309813 0.0
0.63021305026651719405 10.58060698976302660412 0.0
0.47236944290817434178 10.58037641049966026685 0.0
0.31475676311931705120 10.58018938065462855036 0.0
0.15729886247558128032 10.58006630002028636284 0.0
-0.00008021847889986570 10.58001924825920347928 0.0
-0.15745623761962704301 10.58005200003999135561 0.0
-0.31490456036993702549 10.58016002412652944997 0.0
-0.47249990927843621424 10.58033045946300099160 0.0
-0.63031616096688447559 10.58054207041010918999 0.0
-0.78842630581288553060 10.58076518950335476177 0.0

VECTORS node_disp_0.200000 float
0.00000000000000000000 0.00000000000000000000 0.0
0.00000000000000000000 0.00000000000000000000 0.0
0.00000000000000000000 0.00000000000000000000 0.0
0.00000000000000000000 0.00000000000000000000 0.0
0.00000000000000000000 0.00000000000000000000 0.0
0.00000000000000000000 0.00000000000000000000 0.0
0.00000000000000000000 0.00000000000000000000 0.0
0.00000000000000000000 0.00000000000000000000 0.0
0.00000000000000000000 0.00000000000000000000 0.0
0.00000000000000000000 0.00000000000000000000 0.0
0.00000000000000000000 0.00000000000000000000 0.0
0.28917362250596934103 0.33525466245723151149 0.0
0.22859017305156242861 0.32135165892408146249 0.0
0.16997001221465829479 0.31066274488423051281 0.0
0.11265424759434022883 0.30309702989679232488 0.0
0.05613722776547602766 0.29858588020882692593 0.0
-0.00000000066341956585 0.29708692840158690274 0.0
-0.05613722860842595974 0.29858588111751638294 0.0
-0.11265424745825713959 0.30309703131842963275 0.0
-0.16997001184835214271 0.31066274601377252829 0.0
-0.22859017403021111847 0.32135165902234508195 0.0
-0.28917362203072549676 0.33525466327152453339 0.0
0.56257769891882991597 1.19965199584779469433 0.0
0.44983752241583419007 1.19042330950608210571 0.0
0.33712314874555937561 1.18311749658293896559 0.0
0.22458872122624901069 1.17783403616250170742 0.0
0.11223935623261716010 1.17463895201659118683 0.0
-0.00000000024365252725 1.17356985438997885041 0.0
-0.11223935745635921224 1.17463894837141502592 0.0
-0.22458872318058586970 1.17783403069846182021 0.0
-0.33712314795253905952 1.18311749243298525158 0.0
-0.44983751458651777266 1.19042330867860579602 0.0
-0.56257769649574207449 1.19965199122678489729 0.0
0.80218701175938789127 2.58405382401289118732 0.0
0.64059705312756554108 2.57528968110484512977 0.0
0.47984301514992711013 2.56853885360854228281 0.0
0.31962703329859232237 2.56374667921993060204 0.0
0.15973639848557907861 2.56088189068720417652 0.0
0.00000001418672557641 2.55992858105971521354 0.0
-0.15973637267306978194 2.56088189720047765263 0.0
-0.31962701832394146972 2.56374668670448713215 0.0
-0.47984302502943776414 2.56853885399457437799 0.0
-0.64059709512619877891 2.57528967293231003666 0.0
-0.80218703358810494741 2.58405383527487941819 0.0
1.00938636935371794934 4.41395307306661432989 0.0
0.80662123586720468893 4.40661573445133036842 0.0
0.60441956535468710499 4.40088354658374747430 0.0
0.40267871715153302770 4.39677936902536448116 0.0
0.20125786098440889837 4.39431392626833883241 0.0
-0.00000008698415701824 4.39349171639082136664 0.0
-0.20125801014004665590 4.39431394774812122961 0.0
-0.40267878996403544400 4.39677942118567699481 0.0
-0.60441951595498366601 4.40088363689286232727 0.0
-0.80662107323079168530 4.40661584114692317371 0.0
-1.00938630413577001832 4.41395308816591658285 0.0
1.18437574628693909062 6.62625883370369450631 0.0
0.94654647740541864032 6.62012514450359645934 0.0
0.70936373969386679050 6.61536261137001346810 0.0
0.47265154060309610973 6.61196313379932298915 0.0
0.23624892841482331152 6.60992387605918985116 0.0
0.00000028837694577281 6.60924408440236010875 0.0
-0.23624845434680577516 6.60992364615892036284 0.0
-0.47265135422898835182 6.61196268772372874878 0.0
-0.70936393726465596377 6.61536200466705714973 0.0
-0.94654690300522725810 6.62012453805742318025 0.0
-1.18437562573581978143 6.62625860849643633088 0.0
1.32703542108247374287 9.15618373600515056410 0.0
1.06069197320916819294 9.15130460606902218501 0.0
0.79496886856376969277 9.14750791535506024843 0.0
0.52971641078607067943 9.14479600643137047200 0.0
0.26477913177731920991 9.14316920671014088384 0.0
-0.00000021906066635125 9.14262730115938282438 0.0
-0.26477934832627969541 9.14317011868243412209 0.0
-0.52971607225646999417 9.14479767052549696871 0.0
-0.79496802119217757632 9.14750996581874886715 0.0
-1.06069148048153794051 9.15130637522242196269 0.0
-1.32703773422411419602 9.15618410096765700246 0.0
1.43740973389568704732 11.93913261002112591314 0.0
1.14897675396716625329 11.93550294155009439123 0.0
0.86117893230997699661 11.93267972822661704413 0.0
0.57385526386125729204 11.93066243869287390567 0.0
0.28684701360753595001 11.92945147492849322646 0.0
-0.00000368029559639734 11.92904738346164350560 0.0
-0.28685426311166195568 11.92945055388897657167 0.0
-0.57386189162853473711 11.93066115041057884127 0.0
-0.86118350190891213014 11.93267920237878954026 0.0
-1.14897607308845506324 11.93550491979974736978 0.0
-1.43739766125160928212 11.93913947671823549967 0.0
1.51545288422795110250 14.91058422313441766960 0.0
1.21144801345970143380 14.90817641809113247575 0.0
0.90805729217731867564 14.90630031581940961871 0.0
0.60512578753901369311 14.90495802370838518414 0.0
0.30249941036411398532 14.90415024375217534214 0.0
0.00002445277793481370 14.90387699970728618837 0.0
-0.30245278958577809236 14.90413799316552712071 0.0
-0.60508631376314503392 14.90493272964346616050 0.0
-0.90803072674631002403 14.90626046084963185479 0.0
-1.21144168655133244172 14.90811991907563971438 0.0
-1.51547646934308000155 14.91050872980036956506 0.0
1.56111009062196304242 18.00534300438542345546 0.0
1.24790831891388687147 18.00429604489393398126 0.0
0.93534423159639901169 18.00350692449359968350 0.0
0.62326624593668888963 18.00296384362697210690 0.0
0.31151591255857691287 18.00265889742042446642 0.0
-0.00006937651492896092 18.00258763425240005063 0.0
-0.31165426448232880219 18.00274880612148464820 0.0
-0.62340361771396435309 18.00314425598850931465 0.0
-0.93548077840254939552 18.00377892136158664016 0.0
-1.24804565063232253408 18.00466095502466856715 0.0
-1.56125239627295453460 18.00580199443678708349 0.0
1.57672848341870297517 21.16170476594334104448 0.0
1.26042610065404914188 21.16121398171160095103 0.0
0.94473888590713350766 21.16075282318486117106 0.0
0.62951352629919221648 21.16037876349479418536 0.0
0.31459772498149174424 21.16013260222610981032 0.0
-0.00016043695770011709 21.16003849870393338506 0.0
-0.31491247526938537238 21.16010400226549492686 0.0
-0.62980912080023698785 21.16032005043856401016 0.0
-0.94499981864746795956 21.16066092111149643529 0.0
-1.26063232205459785362 21.16108414300570927935 0.0
-1.57685261177683377909 21.16153038119220397562 0.0

VECTORS node_disp_0.300000 float
0.00000000000000000000 0.00000000000000000000 0.0
0.00000000000000000000 0.00000000000000000000 0.0
0.00000000000000000000 0.00000000000000000000 0.0
0.00000000000000000000 0.00000000000000000000 0.0
0.00000000000000000000 0.00000000000000000000 0.0
0.00000000000000000000 0.00000000000000000000 0.0
0.00000000000000000000 0.00000000000000000000 0.0
0.00000000000000000000 0.00000000000000000000 0.0
0.00000000000000000000 0.00000000000000000000 0.0
0.00000000000000000000 0.00000000000000000000 0.0
0.00000000000000000000 0.00000000000000000000 0.0
0.43376043377569606374 0.50288199370560648926 0.0
0.34288525959055732306 0.48202748840508524708 0.0
0.25495501833180167495 0.46599411734469786683 0.0
0.16898137139801128193 0.45464554486310826409 0.0
0.08420584165145450495 0.44787882033090253842 0.0
-0.00000000099512421461 0.44563039261995673890 0.0
-0.08420584291586909187 0.44787882169393616882 0.0
-0.16898137119387629523 0.45464554699556314343 0.0
-0.25495501778233198298 0.46599411903900928023 0.0
-0.34288526105851957482 0.48202748855247856685 0.0
-0.43376043306281908407 0.50288199492704310778 0.0
0.84386654841023345242 1.79947799384122264499 0.0
0.67475628364931661274 1.78563496432815282944 0.0
0.50568472313749213143 1.77467624494304043736 0.0
0.33688308185213244883 1.76675105431209722440 0.0
0.16835903435530644168 1.76195842809305691645 0.0
-0.00000000036546704889 1.76035478165307956999 0.0
-0.16835903619089609418 1.76195842262529134281 0.0
-0.33688308478361428389 1.76675104611603472904 0.0
-0.50568472194793845365 1.77467623871810697977 0.0
-0.67475627190531894950 1.78563496308693414605 0.0
-0.84386654477557887510 1.79947798690970328650 0.0
1.20328051768380328568 3.87608073616699977393 0.0
0.96089557972704497946 3.86293452180447882682 0.0
0.71976452275162239314 3.85280828055967727863 0.0
0.47944054996569496208 3.84562001897651306592 0.0
0.23960459773727435517 3.84132283617727487979 0.0
0.00000002128010498413 3.83989287173599258551 0.0
-0.23960455901847715898 3.84132284594718598214 0.0
-0.47944052750368537641 3.84562003020334719494 0.0
-0.71976453757085478991 3.85280828113872519936 0.0
-0.96089564272496130748 3.86293450954567685329 0.0
-1.20328055042684600728 3.87608075305998234228 0.0
1.51407955408559247168 6.62092960984867673346 0.0
1.20993185384475854249 6.60992360192540218122 0.0
0.90662934806495942830 6.60132532012375250474 0.0
0.60401807574923993549 6.59516905378598039533 0.0
0.30188679148758867932 6.59147088965032423857 0.0
-0.00000013047621367429 6.59023757483400896007 0.0
-0.30188701522100153118 6.59147092186999650210 0.0
-0.60401818496794978941 6.59516913202644872172 0.0
-0.90662927396536008295 6.60132545558742123148 0.0
-1.20993160989009362893 6.60992376196878872463 0.0
-1.51407945625862394579 6.62092963249762789246 0.0
1.77656361949338004180 9.93938825092352651325 0.0
1.41981971615844559942 9.93018771712311476563 0.0
1.06404560957850868874 9.92304391742253244502 0.0
0.70897731092977556155 9.91794470106634840079 0.0
0.35437339263481082430 9.91488581445605987597 0.0
0.00000043256544993043 9.91386612697078462020 0.0
-0.35437268153272183380 9.91488546960565209076 0.0
-0.70897703136855072525 9.91794403195294904663 0.0
-1.06404590593462877735 9.92304300736808642114 0.0
-1.41982035455809540991 9.93018680745383619524 0.0
-1.77656343866663846143 9.93938791311261837791 0.0
1.99055313169241787641 13.73427560450855899887 0.0
1.59103795986866902723 13.72695690960418701820 0.0
1.19245330288681938846 13.72126187353310555750 0.0
0.79457461620654679102 13.71719401014746964051 0.0
0.39716869767971485494 13.71475381056555953307 0.0
-0.00000032859095912060 13.71394095223940468031 0.0
-0.39716902250307561939 13.71475517852399761409 0.0
-0.79457410841206832508 13.71719650628865494468 0.0
-1.19245203182935677333 13.72126494922863670922 0.0
-1.59103722077715259431 13.72695956333429379015 0.0
-1.99055660140481061049 13.73427615195232753820 0.0
2.15611460091600770639 17.90869891567461991144 0.0
1.72346513100869103141 17.90325441296796071811 0.0
1.29176839850840319279 17.89901959298266120868 0.0
0.86078289582084321907 17.89599365868198077578 0.0
0.43027052042579561064 17.89417721303538044708 0.0
-0.00000552044336086180 17.89357107583509787219 0.0
-0.43028139468191772821 17.89417583147611878758 0.0
-0.86079283747169332841 17.89599172625856837726 0.0
-1.29177525290674122260 17.89901880421094659823 0.0
-1.72346410969056051954 17.90325738034246683128 0.0
-2.15609649194982733178 17.90870921572031093660 0.0
2.27317932641657893811 22.36587633549249432008 0.0
1.81717202024923629722 22.36226462792750879771 0.0
1.36208593831072199976 22.35945047451987832687 0.0
0.90768868133834468281 22.35743703635331058877 0.0
0.45374911556109120969 22.35622536641897539766 0.0
0.00003667916692609868 22.35581550035163189705 0.0
-0.45367918439353827065 22.35620699053900040099 0.0
-0.90762947067448962457 22.35739909525593560602 0.0
-1.36204609016415112421 22.35939069206521523370 0.0
-1.81716252988662008150 22.36217987940427320837 0.0
-2.27321470408920500716 22.36576309549142749233 0.0
2.34166513600843817500 27.00801450751977483833 0.0
1.87186247843121145173 27.00644406828252641617 0.0
1.40301634743988135057 27.00526038768201075868 0.0
0.93489936893522829209 27.00444576638204807750 0.0
0.46727386885297850228 27.00398834707220885321 0.0
-0.00010406477235842538 27.00388145232017222952 0.0
-0.46748139673853617015 27.00412321012378669138 0.0
-0.93510542660106943380 27.00471638492432546741 0.0
-1.40322116764903359609 27.00566838298395566653 0.0
-1.87206847600879022764 27.00699143347859632058 0.0
-2.34187859448484925196 27.00870299259678830595 0.0
2.36509272520368352133 31.74255715000781918889 0.0
1.89063915104158586367 31.74182097366020727236 0.0
1.41710832890609772505 31.74112923587009049697 0.0
0.94427028947907065692 31.74056814633499001843 0.0
0.47189658748740470617 31.74019890443196345586 0.0
-0.00024065543649926516 31.74005774914868283076 0.0
-0.47236871291914317439 31.74015600449102691982 0.0
-0.94471368123053833799 31.74048007675062876842 0.0
-1.41749972801650203635 31.74099138276002207704 0.0
-1.89094848314231467334 31.74162621560133601406 0.0
-2.36527891774078602438 31.74229557288108338753 0.0

VECTORS node_disp_0.400000 float
0.00000000000000000000 0.00000000000000000000 0.0
0.00000000000000000000 0.00000000000000000000 0.0
0.00000000000000000000 0.00000000000000000000 0.0
0.00000000000000000000 0.00000000000000000000 0.0
0.00000000000000000000 0.00000000000000000000 0.0
0.00000000000000000000 0.00000000000000000000 0.0
0.00000000000000000000 0.00000000000000000000 0.0
0.00000000000000000000 0.00000000000000000000 0.0
0.00000000000000000000 0.00000000000000000000 0.0
0.00000000000000000000 0.00000000000000000000 0.0
0.00000000000000000000 0.00000000000000000000 0.0
0.57834724504542300849 0.67050932495398163358 0.0
0.45718034612955243956 0.64270331788608936474 0.0
0.33994002444894527715 0.62132548980516510984 0.0
0.22530849520168244604 0.60619405982942409228 0.0
0.11227445553743305162 0.59717176045297792886 0.0
-0.00000000132682879409 0.59417385683832635301 0.0
-0.11227445722331215461 0.59717176227035562164 0.0
-0.22530849492949542312 0.60619406267269637656 0.0
-0.33994002371631193427 0.62132549206424569910 0.0
-0.45718034808682816994 0.64270331808261194073 0.0
-0.57834724409491278241 0.67050932658256168217 0.0
1.12515539790163709988 2.39930399183465059565 0.0
0.89967504488279914643 2.38084661915022355316 0.0
0.67424629752942499827 2.36623499330314235323 0.0
0.44917744247801583146 2.35566807246169229728 0.0
0.22447871247799577876 2.34927790416952264607 0.0
-0.00000000048728152581 2.34713970891618073367 0.0
-0.22447871492543297611 2.34927789687916810379 0.0
-0.44917744638664269807 2.35566806153360808196 0.0
-0.67424629594333773674 2.36623498500322870797 0.0
-0.89967502922412023736 2.38084661749526294017 0.0
-1.12515539305541611981 2.39930398259262167571 0.0
1.60437402360821890213 5.16810764832110791644 0.0
1.28119410632652397375 5.15057936250411074752 0.0
0.95968603035331756512 5.13707770751081049809 0.0
0.63925406663279782382 5.12749335873309419753 0.0
0.31947279698896974276 5.12176378166734558306 0.0
0.00000002837348458522 5.11985716241226995749 0.0
-0.31947274536388414745 5.12176379469389431165 0.0
-0.63925403668342872798 5.12749337370220814591 0.0
-0.95968605011227148260 5.13707770828287735299 0.0
-1.28119419032372361400 5.15057934615904500220 0.0
-1.60437406726558640102 5.16810767084508704272 0.0
2.01877273881746610584 8.82790614663073824886 0.0
1.61324247182231195197 8.81323146939947221767 0.0
1.20883913077523130752 8.80176709366375753518 0.0
0.80535743434694617715 8.79355873854659719768 0.0
0.40251572199076779413 8.78862785303230964473 0.0
-0.00000017396827066724 8.78698343327719300078 0.0
-0.40251602030195665627 8.78862789599186911005 0.0
-0.80535757997186430135 8.79355884286721689591 0.0
-1.20883903197573627786 8.80176727428198013570 0.0
-1.61324214654939468438 8.81323168279065072284 0.0
-2.01877260838147698507 8.82790617682933564936 0.0
2.36875149269982010480 13.25251766814335319111 0.0
1.89309295491147189239 13.24025028974262774284 0.0
1.41872747946315014289 13.23072522347504786921 0.0
0.94530308125645512440 13.22392626833337203607 0.0
0.47249785685479872566 13.21984775285292634806 0.0
0.00000057675395494564 13.21848816953920646711 0.0
-0.47249690871863680997 13.21984729305238204233 0.0
-0.94530270850811193295 13.22392537618216756812 0.0
-1.41872787460460081377 13.23072401006911036347 0.0
-1.89309380611096256253 13.24024907685024743387 0.0
-2.36875125159745536507 13.25251721772880131311 0.0
2.65407084230236023359 18.31236747301196388094 0.0
2.12138394652816897334 18.30260921313934119325 0.0