# vtk DataFile Version 2.0
opensees model
ASCII
DATASET UNSTRUCTURED_GRID
POINTS 5 float
0.00000000000000000000 0.00000000000000000000 0.0
2.00000000000000000000 0.00000000000000000000 0.0
4.00000000000000000000 0.00000000000000000000 0.0
2.00000000000000000000 -1.50000000000000000000 0.0
4.00000000000000000000 -3.00000000000000000000 0.0

CELLS 6 18
2 0 1
2 0 3
2 1 2
2 3 2
2 3 4
2 3 1

CELL_TYPES 6
3
3
3
3
3
3

POINT_DATA 5
VECTORS node_disp_1.000000 float
-10.66666666666666429819 -52.41666666666666429819 0.0
-5.33333333333333214910 -21.86111111111112137451 0.0
0.00000000000000000000 0.00000000000000000000 0.0
5.20833333333332859638 -17.36111111111112137451 0.0
0.00000000000000000000 0.00000000000000000000 0.0

VECTORS node_disp_2.000000 float
-10.66666666666666785090 -52.41666666666667140362 0.0
-5.33333333333333392545 -21.86111111111111071637 0.0
0.00000000000000000000 0.00000000000000000000 0.0
5.20833333333333392545 -17.36111111111111071637 0.0
0.00000000000000000000 0.00000000000000000000 0.0

VECTORS node_disp_3.000000 float
-10.66666666666666785090 -52.41666666666667140362 0.0
-5.33333333333333392545 -21.86111111111111426908 0.0
0.00000000000000000000 0.00000000000000000000 0.0
5.20833333333333303727 -17.36111111111111426908 0.0
0.00000000000000000000 0.00000000000000000000 0.0

VECTORS node_disp_4.000000 float
-10.66666666666666785090 -52.41666666666667140362 0.0
-5.33333333333333392545 -21.86111111111111071637 0.0
0.00000000000000000000 0.00000000000000000000 0.0
5.20833333333333481363 -17.36111111111111071637 0.0
0.00000000000000000000 0.00000000000000000000 0.0

